/*--------------------------------*- C++ -*----------------------------------*\
| =========                 |                                                 |
| \\      /  F ield         | OpenFOAM: The Open Source CFD Toolbox           |
|  \\    /   O peration     | Version:  5.x                                   |
|   \\  /    A nd           | Web:      www.OpenFOAM.org                      |
|    \\/     M anipulation  |                                                 |
\*---------------------------------------------------------------------------*/
FoamFile
{
    version     2.0;
    format      ascii;
    class       volScalarField;
    location    "115";
    object      p;
}
// * * * * * * * * * * * * * * * * * * * * * * * * * * * * * * * * * * * * * //

dimensions      [0 2 -2 0 0 0 0];

internalField   nonuniform List<scalar> 
277632
(
0.0365566
0.03611
0.0355757
0.0352093
0.0348621
0.0345422
0.0342573
0.0339945
0.0337496
0.03352
0.033301
0.0330922
0.0328915
0.0326971
0.0325088
0.0323256
0.0321471
0.0319728
0.0318023
0.0316352
0.0314712
0.0313102
0.0311518
0.030996
0.0308426
0.0306913
0.0305421
0.0303948
0.0302494
0.0301057
0.0299636
0.0298231
0.0296841
0.0295464
0.0294101
0.0292751
0.0291412
0.0290086
0.028877
0.0287465
0.028617
0.0284885
0.0283609
0.0282342
0.0281084
0.0279835
0.0278593
0.0277359
0.0276133
0.0274914
0.0273702
0.0272496
0.0271298
0.0270105
0.0268919
0.0267738
0.0266564
0.0265394
0.0264231
0.0263072
0.0261919
0.026077
0.0259627
0.0258488
0.0257353
0.0256223
0.0255097
0.0253976
0.0252858
0.0251744
0.0250634
0.0249527
0.0248424
0.0247324
0.0246227
0.0245133
0.0244042
0.0242953
0.0241865
0.0240779
0.0239694
0.0238609
0.0237522
0.0236434
0.0235342
0.0234244
0.0233136
0.0232016
0.0230878
0.0229716
0.022852
0.022728
0.0225978
0.0224595
0.0223102
0.0221461
0.0219621
0.0217534
0.0215106
0.0212408
0.0209268
0.0206089
0.0203192
0.0200513
0.0197976
0.0195604
0.019338
0.0191267
0.0189242
0.0187306
0.0185463
0.0183728
0.0182105
0.0180623
0.0179254
0.0177975
0.0176779
0.0175646
0.0174557
0.0173497
0.0172451
0.0171408
0.017036
0.0169302
0.0168234
0.016716
0.0166095
0.016504
0.0164034
0.0163042
0.0162132
0.0161391
0.0160616
0.0159812
0.0158912
0.0157955
0.0156962
0.0155918
0.015483
0.0153711
0.0152573
0.0151428
0.0150294
0.0149185
0.0148124
0.0147131
0.0146228
0.0145459
0.0144871
0.0144434
0.0144257
0.0144264
0.0144036
0.0143747
0.0143365
0.0142871
0.0142276
0.0141585
0.01408
0.0139922
0.0138951
0.0137886
0.0136725
0.0135467
0.0134108
0.0132646
0.0131074
0.0129392
0.0127592
0.0125668
0.0123614
0.0121418
0.0119068
0.0116542
0.0113812
0.0110834
0.010754
0.0103853
0.00996403
0.00948769
0.00898911
0.00853496
0.00813236
0.00777755
0.00746851
0.00720328
0.00697159
0.00676678
0.00658431
0.00641897
0.00626613
0.00612233
0.00598465
0.00585129
0.00572097
0.00559257
0.00546541
0.00533899
0.00521294
0.00508703
0.0049611
0.00483505
0.0047088
0.00458236
0.0044557
0.00432885
0.00420185
0.00407473
0.00394755
0.00382037
0.00369324
0.00356621
0.00343931
0.0033126
0.00318614
0.00305994
0.00293404
0.0028085
0.00268335
0.0025586
0.00243429
0.00231041
0.00218699
0.00206405
0.0019416
0.00181964
0.00169818
0.00157726
0.00145688
0.00133703
0.0012177
0.00109892
0.000980663
0.000862977
0.000745815
0.000629248
0.000513245
0.000397844
0.000283175
0.000169082
5.6832e-05
0.0365654
0.0361092
0.0355745
0.0352089
0.0348611
0.0345413
0.0342566
0.0339939
0.0337492
0.0335196
0.0333007
0.0330919
0.0328912
0.0326969
0.0325086
0.0323255
0.032147
0.0319727
0.0318022
0.0316351
0.0314711
0.0313101
0.0311518
0.030996
0.0308425
0.0306912
0.030542
0.0303948
0.0302494
0.0301057
0.0299636
0.0298231
0.029684
0.0295464
0.0294101
0.029275
0.0291412
0.0290085
0.028877
0.0287465
0.028617
0.0284885
0.0283609
0.0282342
0.0281084
0.0279835
0.0278593
0.0277359
0.0276133
0.0274914
0.0273702
0.0272496
0.0271297
0.0270105
0.0268919
0.0267738
0.0266563
0.0265394
0.0264231
0.0263072
0.0261919
0.026077
0.0259627
0.0258488
0.0257353
0.0256223
0.0255097
0.0253976
0.0252858
0.0251744
0.0250634
0.0249527
0.0248424
0.0247324
0.0246227
0.0245133
0.0244042
0.0242953
0.0241865
0.0240779
0.0239694
0.0238609
0.0237523
0.0236435
0.0235343
0.0234245
0.0233138
0.0232018
0.023088
0.0229719
0.0228524
0.0227285
0.0225986
0.0224605
0.0223115
0.0221479
0.0219644
0.0217565
0.0215147
0.0212461
0.0209332
0.0206162
0.0203271
0.0200593
0.0198053
0.0195673
0.0193437
0.0191307
0.0189263
0.0187305
0.0185438
0.0183679
0.0182033
0.0180532
0.0179145
0.0177853
0.0176647
0.0175507
0.0174415
0.0173355
0.0172312
0.0171273
0.0170231
0.0169181
0.0168122
0.0167057
0.0166002
0.0164956
0.0163958
0.0162972
0.0162071
0.016134
0.016057
0.015977
0.0158871
0.0157915
0.0156923
0.015588
0.0154793
0.0153674
0.0152536
0.0151392
0.0150257
0.0149149
0.0148087
0.0147094
0.0146191
0.0145423
0.0144835
0.0144398
0.0144225
0.0144237
0.0144008
0.0143718
0.0143333
0.0142836
0.0142236
0.014154
0.0140747
0.0139861
0.0138879
0.0137802
0.0136628
0.0135355
0.013398
0.01325
0.0130909
0.0129206
0.0127384
0.0125439
0.0123364
0.0121147
0.0118777
0.0116234
0.0113488
0.0110498
0.0107196
0.0103504
0.00992917
0.00945311
0.0089556
0.0085023
0.00810085
0.00774774
0.00744104
0.00717812
0.00694956
0.00674775
0.0065675
0.00640385
0.00625253
0.00611022
0.00597403
0.00584201
0.00571281
0.00558538
0.00545907
0.00533337
0.00520794
0.00508257
0.00495712
0.00483148
0.0047056
0.00457948
0.00445311
0.00432651
0.00419974
0.00407282
0.00394582
0.0038188
0.00369181
0.00356491
0.00343813
0.00331153
0.00318516
0.00305905
0.00293323
0.00280777
0.00268269
0.002558
0.00243374
0.00230991
0.00218655
0.00206365
0.00194124
0.00181932
0.0016979
0.00157701
0.00145666
0.00133683
0.00121753
0.00109878
0.000980534
0.000862875
0.00074572
0.000629188
0.000513171
0.000397844
0.000283069
0.00016921
5.64201e-05
0.0365821
0.0361083
0.0355724
0.035208
0.0348589
0.0345396
0.0342552
0.0339927
0.0337482
0.0335188
0.0333
0.0330914
0.0328908
0.0326965
0.0325082
0.0323252
0.0321468
0.0319725
0.0318019
0.0316349
0.0314709
0.0313099
0.0311516
0.0309958
0.0308424
0.0306911
0.0305419
0.0303947
0.0302493
0.0301056
0.0299635
0.029823
0.029684
0.0295463
0.02941
0.029275
0.0291412
0.0290085
0.0288769
0.0287464
0.0286169
0.0284884
0.0283609
0.0282342
0.0281084
0.0279834
0.0278593
0.0277359
0.0276133
0.0274914
0.0273701
0.0272496
0.0271297
0.0270105
0.0268918
0.0267738
0.0266563
0.0265394
0.0264231
0.0263072
0.0261919
0.026077
0.0259627
0.0258488
0.0257353
0.0256223
0.0255097
0.0253975
0.0252858
0.0251744
0.0250634
0.0249527
0.0248424
0.0247324
0.0246227
0.0245133
0.0244042
0.0242953
0.0241866
0.024078
0.0239695
0.023861
0.0237524
0.0236436
0.0235344
0.0234247
0.023314
0.0232021
0.0230885
0.0229725
0.0228533
0.0227296
0.0226001
0.0224625
0.0223141
0.0221514
0.0219692
0.0217629
0.021523
0.0212567
0.020946
0.0206307
0.0203427
0.0200753
0.0198207
0.0195812
0.0193552
0.019139
0.0189307
0.0187306
0.0185393
0.0183586
0.0181896
0.0180355
0.017893
0.0177611
0.0176383
0.0175229
0.0174129
0.0173067
0.0172027
0.0170996
0.0169965
0.016893
0.0167889
0.0166843
0.0165808
0.0164781
0.0163802
0.016283
0.0161947
0.0161237
0.0160479
0.0159685
0.0158789
0.0157836
0.0156846
0.0155805
0.015472
0.0153602
0.0152465
0.0151321
0.0150188
0.0149079
0.0148018
0.0147025
0.0146122
0.0145353
0.0144767
0.0144329
0.0144163
0.0144184
0.0143953
0.014366
0.0143271
0.0142767
0.0142159
0.0141452
0.0140647
0.0139745
0.0138746
0.0137649
0.0136454
0.0135157
0.0133756
0.0132248
0.0130629
0.0128895
0.0127044
0.0125069
0.0122965
0.0120722
0.0118329
0.0115765
0.0113003
0.0110001
0.0106693
0.0102999
0.00987901
0.0094037
0.00890755
0.00845539
0.00805525
0.00770436
0.00739967
0.00713902
0.00691349
0.00671512
0.00653834
0.00637781
0.00622923
0.00608938
0.00595561
0.00582585
0.00569861
0.00557288
0.00544805
0.00532364
0.00519932
0.00507492
0.00495031
0.00482541
0.00470018
0.00457463
0.00444876
0.0043226
0.00419623
0.00406965
0.00394296
0.00381622
0.00368949
0.00356281
0.00343624
0.00330982
0.00318362
0.00305766
0.00293197
0.00280663
0.00268167
0.00255709
0.00243292
0.00230918
0.0021859
0.00206307
0.00194074
0.00181888
0.00169751
0.00157668
0.00145637
0.0013366
0.00121733
0.00109861
0.000980403
0.000862778
0.000745642
0.000629156
0.000513125
0.000397914
0.00028296
0.000169492
5.56805e-05
0.0366055
0.0361083
0.0355696
0.0352066
0.0348557
0.0345369
0.0342532
0.0339909
0.0337468
0.0335175
0.0332991
0.0330907
0.0328901
0.0326959
0.0325077
0.0323247
0.0321464
0.0319721
0.0318016
0.0316346
0.0314707
0.0313097
0.0311514
0.0309956
0.0308422
0.030691
0.0305418
0.0303945
0.0302491
0.0301055
0.0299634
0.0298229
0.0296839
0.0295463
0.0294099
0.0292749
0.0291411
0.0290084
0.0288769
0.0287464
0.0286169
0.0284884
0.0283608
0.0282342
0.0281084
0.0279834
0.0278593
0.0277359
0.0276132
0.0274913
0.0273701
0.0272496
0.0271297
0.0270105
0.0268918
0.0267738
0.0266563
0.0265394
0.026423
0.0263072
0.0261919
0.026077
0.0259627
0.0258488
0.0257353
0.0256223
0.0255097
0.0253975
0.0252858
0.0251744
0.0250634
0.0249527
0.0248424
0.0247324
0.0246227
0.0245134
0.0244042
0.0242953
0.0241866
0.024078
0.0239695
0.0238611
0.0237525
0.0236438
0.0235347
0.023425
0.0233144
0.0232027
0.0230892
0.0229734
0.0228545
0.0227313
0.0226023
0.0224654
0.0223181
0.0221567
0.0219763
0.0217723
0.0215353
0.0212725
0.0209651
0.0206523
0.0203663
0.0200994
0.019844
0.0196023
0.0193729
0.0191521
0.0189383
0.0187318
0.0185337
0.0183459
0.0181705
0.01801
0.0178618
0.0177252
0.0175988
0.0174807
0.0173689
0.0172618
0.0171577
0.0170554
0.0169537
0.0168523
0.0167507
0.016649
0.0165486
0.0164491
0.0163544
0.0162598
0.0161748
0.0161073
0.0160333
0.0159551
0.0158659
0.0157713
0.0156727
0.0155689
0.0154606
0.0153491
0.0152356
0.0151215
0.0150082
0.0148976
0.0147915
0.0146924
0.0146021
0.014525
0.0144665
0.0144227
0.014407
0.0144101
0.0143866
0.0143568
0.0143172
0.0142658
0.0142038
0.0141318
0.0140498
0.013958
0.0138562
0.0137446
0.0136228
0.0134909
0.0133485
0.0131954
0.0130311
0.0128554
0.012668
0.0124683
0.0122559
0.0120297
0.0117888
0.011531
0.0112539
0.0109529
0.0106219
0.0102527
0.00983254
0.00935847
0.00886339
0.00841182
0.00801233
0.00766317
0.00736072
0.007102
0.00687854
0.00668252
0.00650796
0.00634977
0.00620379
0.00606603
0.00593438
0.00580679
0.00568167
0.00555786
0.00543476
0.00531184
0.00518885
0.0050656
0.00494201
0.00481801
0.00469357
0.00456873
0.00444347
0.00431786
0.00419198
0.00406583
0.00393952
0.00381313
0.00368671
0.00356031
0.00343399
0.0033078
0.0031818
0.00305603
0.00293051
0.00280533
0.00268051
0.00255606
0.00243201
0.00230838
0.00218519
0.00206246
0.00194021
0.00181843
0.00169713
0.00157636
0.00145611
0.00133639
0.00121717
0.00109849
0.000980325
0.000862728
0.000745633
0.000629188
0.000513152
0.000398074
0.0002829
0.000169907
5.4687e-05
0.0366358
0.0361091
0.0355662
0.0352044
0.0348514
0.0345334
0.0342504
0.0339886
0.033745
0.0335159
0.0332979
0.0330896
0.0328891
0.0326951
0.032507
0.0323242
0.0321458
0.0319717
0.0318012
0.0316342
0.0314703
0.0313094
0.0311511
0.0309954
0.030842
0.0306907
0.0305416
0.0303944
0.030249
0.0301053
0.0299633
0.0298228
0.0296838
0.0295461
0.0294099
0.0292748
0.029141
0.0290084
0.0288768
0.0287463
0.0286168
0.0284883
0.0283608
0.0282341
0.0281083
0.0279834
0.0278592
0.0277358
0.0276132
0.0274913
0.0273701
0.0272496
0.0271297
0.0270104
0.0268918
0.0267738
0.0266563
0.0265394
0.026423
0.0263072
0.0261918
0.026077
0.0259626
0.0258487
0.0257353
0.0256223
0.0255097
0.0253975
0.0252858
0.0251744
0.0250634
0.0249527
0.0248424
0.0247324
0.0246228
0.0245134
0.0244042
0.0242954
0.0241867
0.0240781
0.0239696
0.0238612
0.0237527
0.023644
0.023535
0.0234254
0.023315
0.0232034
0.0230901
0.0229747
0.0228561
0.0227334
0.0226051
0.0224693
0.0223232
0.0221636
0.0219855
0.0217846
0.0215514
0.0212933
0.0209904
0.0206809
0.0203975
0.0201314
0.0198752
0.019631
0.0193973
0.0191708
0.01895
0.0187355
0.0185287
0.0183317
0.0181477
0.0179783
0.0178221
0.0176787
0.0175466
0.017424
0.0173089
0.0171997
0.0170945
0.0169923
0.016892
0.0167928
0.0166943
0.0165964
0.0165001
0.0164052
0.0163153
0.0162251
0.0161452
0.0160829
0.016012
0.0159355
0.0158473
0.0157536
0.0156557
0.0155525
0.0154448
0.0153339
0.0152208
0.0151072
0.0149942
0.0148839
0.014778
0.014679
0.0145887
0.0145115
0.0144533
0.0144092
0.0143945
0.0143984
0.0143742
0.0143435
0.0143028
0.0142503
0.0141871
0.0141138
0.0140305
0.0139373
0.0138342
0.0137211
0.013598
0.0134648
0.0133212
0.0131668
0.0130013
0.0128245
0.012636
0.0124353
0.012222
0.011995
0.0117534
0.0114949
0.0112174
0.0109162
0.0105854
0.0102173
0.00979868
0.00932688
0.00883273
0.00838114
0.00798144
0.00763296
0.00733176
0.00707417
0.00685192
0.00665728
0.00648412
0.00632757
0.00618322
0.00604674
0.00591655
0.00579049
0.00566676
0.00554441
0.00542267
0.00530105
0.00517922
0.00505701
0.00493436
0.00481117
0.00468745
0.00456325
0.00443857
0.00431347
0.00418805
0.00406231
0.00393636
0.00381029
0.00368417
0.00355805
0.00343196
0.003306
0.0031802
0.00305461
0.00292925
0.00280422
0.00267954
0.00255522
0.00243129
0.00230777
0.00218467
0.00206203
0.00193985
0.00181815
0.00169691
0.00157621
0.00145602
0.00133634
0.00121716
0.00109853
0.00098039
0.000862824
0.000745753
0.000629363
0.000513282
0.000398387
0.000282883
0.000170512
5.35675e-05
0.0366732
0.03611
0.0355619
0.0352015
0.0348461
0.0345291
0.0342469
0.0339857
0.0337426
0.033514
0.0332964
0.0330883
0.0328879
0.0326942
0.0325062
0.0323235
0.0321452
0.0319711
0.0318007
0.0316337
0.0314699
0.031309
0.0311508
0.0309951
0.0308417
0.0306905
0.0305414
0.0303942
0.0302488
0.0301051
0.0299631
0.0298226
0.0296836
0.029546
0.0294097
0.0292747
0.0291409
0.0290083
0.0288767
0.0287462
0.0286168
0.0284883
0.0283607
0.0282341
0.0281083
0.0279833
0.0278592
0.0277358
0.0276132
0.0274913
0.0273701
0.0272495
0.0271297
0.0270104
0.0268918
0.0267737
0.0266563
0.0265394
0.026423
0.0263072
0.0261918
0.026077
0.0259626
0.0258487
0.0257353
0.0256223
0.0255097
0.0253975
0.0252858
0.0251744
0.0250634
0.0249527
0.0248424
0.0247324
0.0246228
0.0245134
0.0244043
0.0242954
0.0241867
0.0240782
0.0239698
0.0238614
0.0237529
0.0236443
0.0235353
0.0234259
0.0233156
0.0232042
0.0230913
0.0229762
0.0228581
0.0227361
0.0226087
0.0224741
0.0223296
0.0221721
0.0219969
0.0217998
0.0215713
0.0213189
0.0210219
0.0207167
0.0204366
0.0201716
0.0199143
0.019667
0.0194283
0.019195
0.0189661
0.0187423
0.0185253
0.0183178
0.0181232
0.0179431
0.0177773
0.0176252
0.0174856
0.0173567
0.0172365
0.0171235
0.017016
0.016913
0.0168134
0.0167163
0.0166211
0.0165273
0.0164362
0.016347
0.0162631
0.0161786
0.0161057
0.0160504
0.0159837
0.0159098
0.0158233
0.015731
0.0156342
0.0155321
0.0154253
0.0153152
0.0152031
0.0150901
0.0149778
0.0148679
0.0147623
0.0146634
0.0145728
0.0144956
0.0144372
0.0143927
0.0143789
0.0143829
0.0143575
0.0143254
0.0142835
0.0142293
0.0141647
0.0140898
0.0140052
0.0139109
0.0138071
0.0136936
0.0135704
0.0134373
0.013294
0.0131399
0.0129748
0.0127983
0.0126102
0.0124099
0.0121968
0.0119701
0.0117287
0.0114705
0.0111934
0.0108929
0.0105633
0.010197
0.00978075
0.00931184
0.00881896
0.00836818
0.0079683
0.00761978
0.00731897
0.00706181
0.00683986
0.00664559
0.00647271
0.00631647
0.00617244
0.00603662
0.00590667
0.00578123
0.00565813
0.00553641
0.0054152
0.00529427
0.00517309
0.00505148
0.00492942
0.00480676
0.00468353
0.00455976
0.00443548
0.00431072
0.00418561
0.00406016
0.00393444
0.0038086
0.0036827
0.00355677
0.00343085
0.00330503
0.00317938
0.0030539
0.00292865
0.00280374
0.00267916
0.00255495
0.0024311
0.00230765
0.00218461
0.00206204
0.00193993
0.00181828
0.00169708
0.00157642
0.00145626
0.00133662
0.00121745
0.00109884
0.000980721
0.000863178
0.000746101
0.00062977
0.000513605
0.000398915
0.000282994
0.000171363
5.2446e-05
0.0367175
0.0361103
0.0355564
0.0351978
0.03484
0.0345241
0.0342428
0.0339824
0.03374
0.0335118
0.0332946
0.0330868
0.0328867
0.0326931
0.0325053
0.0323226
0.0321445
0.0319704
0.0318001
0.0316332
0.0314695
0.0313086
0.0311504
0.0309947
0.0308414
0.0306902
0.0305411
0.0303939
0.0302486
0.0301049
0.0299629
0.0298225
0.0296835
0.0295459
0.0294096
0.0292746
0.0291408
0.0290082
0.0288766
0.0287461
0.0286167
0.0284882
0.0283606
0.028234
0.0281082
0.0279833
0.0278591
0.0277357
0.0276131
0.0274912
0.02737
0.0272495
0.0271296
0.0270104
0.0268918
0.0267737
0.0266563
0.0265393
0.026423
0.0263071
0.0261918
0.026077
0.0259626
0.0258487
0.0257353
0.0256223
0.0255097
0.0253975
0.0252858
0.0251744
0.0250634
0.0249527
0.0248424
0.0247325
0.0246228
0.0245134
0.0244043
0.0242955
0.0241868
0.0240783
0.0239699
0.0238615
0.0237531
0.0236446
0.0235358
0.0234265
0.0233164
0.0232053
0.0230926
0.022978
0.0228605
0.0227393
0.0226129
0.0224797
0.0223371
0.0221821
0.0220103
0.0218175
0.0215946
0.0213487
0.0210586
0.0207591
0.0204846
0.0202225
0.0199659
0.0197171
0.0194745
0.0192352
0.0189982
0.0187646
0.0185364
0.0183162
0.0181084
0.0179149
0.0177361
0.017572
0.0174216
0.0172832
0.0171553
0.0170364
0.016925
0.0168204
0.0167213
0.0166266
0.0165353
0.0164467
0.016362
0.0162795
0.0162027
0.0161257
0.0160605
0.0160121
0.0159499
0.0158788
0.0157945
0.0157041
0.0156089
0.0155083
0.015403
0.0152944
0.0151835
0.0150716
0.0149602
0.0148509
0.0147458
0.0146466
0.0145558
0.0144784
0.0144195
0.014374
0.0143605
0.0143638
0.0143368
0.0143031
0.0142592
0.0142032
0.0141367
0.0140602
0.0139745
0.0138795
0.0137757
0.0136627
0.0135405
0.0134089
0.0132672
0.0131148
0.0129512
0.0127762
0.0125896
0.0123906
0.0121788
0.0119531
0.0117129
0.0114557
0.0111799
0.0108807
0.010553
0.010189
0.00977588
0.00931027
0.00881856
0.00836938
0.00797062
0.00762307
0.00732303
0.00706608
0.00684392
0.00664926
0.0064759
0.00631907
0.00617433
0.00603807
0.00590782
0.00578162
0.00565836
0.00553652
0.00541524
0.00529412
0.00517291
0.00505133
0.0049293
0.00480667
0.00468348
0.0045598
0.00443562
0.00431092
0.00418587
0.00406044
0.00393474
0.00380891
0.00368305
0.00355717
0.00343128
0.00330549
0.00317984
0.00305437
0.00292914
0.00280425
0.00267971
0.00255553
0.00243172
0.00230829
0.00218526
0.00206271
0.0019406
0.00181896
0.00169777
0.00157712
0.00145695
0.00133731
0.00121813
0.00109951
0.000981366
0.000863817
0.000746703
0.000630405
0.000514124
0.000399612
0.000283234
0.000172349
5.13229e-05
0.0367787
0.0361139
0.0355491
0.0351916
0.0348317
0.0345171
0.0342372
0.0339778
0.0337364
0.0335089
0.0332923
0.0330848
0.0328851
0.0326918
0.0325042
0.0323216
0.0321436
0.0319696
0.0317994
0.0316326
0.0314689
0.0313081
0.0311499
0.0309943
0.030841
0.0306898
0.0305407
0.0303936
0.0302483
0.0301047
0.0299627
0.0298222
0.0296833
0.0295457
0.0294094
0.0292744
0.0291406
0.029008
0.0288765
0.028746
0.0286165
0.0284881
0.0283605
0.0282339
0.0281081
0.0279832
0.027859
0.0277356
0.027613
0.0274911
0.0273699
0.0272494
0.0271295
0.0270103
0.0268917
0.0267736
0.0266562
0.0265393
0.0264229
0.0263071
0.0261918
0.0260769
0.0259626
0.0258487
0.0257352
0.0256222
0.0255096
0.0253975
0.0252857
0.0251743
0.0250633
0.0249527
0.0248424
0.0247324
0.0246228
0.0245134
0.0244044
0.0242955
0.0241869
0.0240784
0.02397
0.0238617
0.0237534
0.0236449
0.0235362
0.0234271
0.0233172
0.0232063
0.023094
0.0229798
0.022863
0.0227426
0.0226173
0.0224855
0.022345
0.0221927
0.0220244
0.0218364
0.0216194
0.0213807
0.0210973
0.0208012
0.0205274
0.0202626
0.0200005
0.0197434
0.01949
0.0192382
0.018988
0.0187409
0.0184992
0.0182658
0.0180452
0.0178386
0.0176461
0.0174687
0.0173059
0.0171562
0.0170186
0.0168921
0.0167759
0.0166695
0.0165716
0.0164809
0.0163956
0.0163151
0.0162394
0.0161663
0.0160992
0.0160318
0.0159787
0.0159422
0.0158883
0.0158233
0.0157438
0.0156574
0.0155655
0.015468
0.0153657
0.0152598
0.0151514
0.0150417
0.0149321
0.0148243
0.01472
0.0146213
0.0145315
0.0144544
0.0143953
0.0143493
0.014337
0.0143405
0.0143127
0.0142773
0.0142311
0.0141725
0.0141035
0.0140249
0.0139375
0.0138415
0.0137375
0.013625
0.0135039
0.0133737
0.0132337
0.0130835
0.0129223
0.0127497
0.0125651
0.012368
0.0121577
0.0119336
0.0116951
0.0114397
0.0111659
0.010869
0.0105439
0.0101832
0.0097739
0.00931243
0.00882224
0.00837469
0.00797718
0.00763061
0.00733154
0.00707523
0.00685329
0.00665833
0.00648444
0.00632676
0.006181
0.00604372
0.00591255
0.00578544
0.00566118
0.00553864
0.00541693
0.00529528
0.00517351
0.00505144
0.00492909
0.00480622
0.0046827
0.0045588
0.00443451
0.00430973
0.00418459
0.00405905
0.00393328
0.00380741
0.00368152
0.00355566
0.00342981
0.00330406
0.00317845
0.003053
0.00292779
0.00280291
0.00267836
0.00255418
0.00243036
0.00230692
0.00218389
0.00206134
0.00193925
0.00181763
0.00169648
0.00157586
0.00145575
0.00133616
0.00121705
0.00109848
0.000980386
0.000862894
0.000745809
0.000629595
0.00051327
0.000398969
0.000282223
0.00017205
4.91492e-05
0.0366824
0.0361253
0.0355574
0.0351972
0.0348456
0.0345268
0.0342449
0.0339843
0.0337413
0.0335134
0.0332952
0.0330873
0.0328874
0.0326936
0.0325057
0.0323229
0.0321448
0.0319707
0.0318003
0.0316334
0.0314696
0.0313087
0.0311505
0.0309948
0.0308414
0.0306902
0.0305411
0.0303939
0.0302485
0.0301049
0.0299629
0.0298224
0.0296834
0.0295458
0.0294095
0.0292745
0.0291407
0.0290081
0.0288766
0.0287461
0.0286166
0.0284881
0.0283606
0.0282339
0.0281081
0.0279832
0.027859
0.0277357
0.027613
0.0274911
0.0273699
0.0272494
0.0271296
0.0270103
0.0268917
0.0267736
0.0266562
0.0265393
0.0264229
0.0263071
0.0261917
0.0260769
0.0259625
0.0258486
0.0257352
0.0256222
0.0255096
0.0253974
0.0252857
0.0251743
0.0250633
0.0249526
0.0248423
0.0247323
0.0246226
0.0245132
0.024404
0.0242951
0.0241863
0.0240776
0.023969
0.0238604
0.0237517
0.0236427
0.0235332
0.0234232
0.023312
0.0231995
0.023085
0.022968
0.0228473
0.0227217
0.0225896
0.0224487
0.0222957
0.0221268
0.0219359
0.0217175
0.0214604
0.0211703
0.0208304
0.0204869
0.0201785
0.019899
0.0196404
0.0194043
0.0191884
0.0189878
0.0187996
0.0186226
0.0184561
0.0183004
0.0181558
0.0180216
0.0178946
0.0177737
0.0176577
0.017545
0.0174346
0.0173252
0.017216
0.0171063
0.016996
0.0168851
0.0167741
0.0166639
0.0165563
0.0164519
0.016355
0.0162622
0.0161796
0.0161142
0.0160448
0.0159716
0.0158875
0.0157969
0.0157015
0.0156002
0.015494
0.0153843
0.0152724
0.0151598
0.0150482
0.0149394
0.0148357
0.0147391
0.0146528
0.0145805
0.0145271
0.0144891
0.0144785
0.014487
0.0144717
0.0144512
0.0144207
0.0143792
0.0143277
0.0142668
0.0141963
0.0141163
0.0140266
0.0139271
0.0138174
0.0136973
0.0135666
0.013425
0.0132724
0.0131084
0.0129327
0.0127448
0.0125443
0.0123299
0.0121004
0.0118533
0.0115855
0.011292
0.0109651
0.0105956
0.0101677
0.00967574
0.00915257
0.00867628
0.00825536
0.00788276
0.00755825
0.00728236
0.00704087
0.00682754
0.00663733
0.00646464
0.00630522
0.00615562
0.00601298
0.00587536
0.00574142
0.00560998
0.0054803
0.0053518
0.00522406
0.00509676
0.00496969
0.0048427
0.00471568
0.00458858
0.00446137
0.00433406
0.00420666
0.0040792
0.00395171
0.00382426
0.00369688
0.00356961
0.0034425
0.0033156
0.00318894
0.00306256
0.0029365
0.00281081
0.0026855
0.00256061
0.00243616
0.00231215
0.00218861
0.00206555
0.00194299
0.00182093
0.00169938
0.00157837
0.0014579
0.00133797
0.00121856
0.00109972
0.000981406
0.000863679
0.000746467
0.000629895
0.000513827
0.0003985
0.00028363
0.000169759
5.6607e-05
0.0366918
0.0361236
0.0355562
0.0351967
0.0348445
0.0345259
0.0342443
0.0339837
0.0337408
0.033513
0.0332948
0.0330872
0.0328872
0.0326934
0.0325055
0.0323228
0.0321446
0.0319706
0.0318002
0.0316333
0.0314695
0.0313086
0.0311504
0.0309947
0.0308413
0.0306902
0.0305411
0.0303939
0.0302485
0.0301049
0.0299629
0.0298224
0.0296834
0.0295458
0.0294095
0.0292745
0.0291407
0.0290081
0.0288765
0.028746
0.0286166
0.0284881
0.0283606
0.0282339
0.0281081
0.0279832
0.027859
0.0277357
0.027613
0.0274911
0.0273699
0.0272494
0.0271295
0.0270103
0.0268917
0.0267736
0.0266562
0.0265393
0.0264229
0.0263071
0.0261917
0.0260769
0.0259625
0.0258486
0.0257352
0.0256222
0.0255096
0.0253974
0.0252857
0.0251743
0.0250633
0.0249526
0.0248423
0.0247323
0.0246226
0.0245132
0.024404
0.0242951
0.0241863
0.0240776
0.0239691
0.0238604
0.0237517
0.0236427
0.0235333
0.0234233
0.0233122
0.0231997
0.0230854
0.0229684
0.0228478
0.0227224
0.0225906
0.0224499
0.0222974
0.022129
0.021939
0.0217216
0.0214658
0.0211774
0.0208391
0.020497
0.0201893
0.0199101
0.019651
0.0194138
0.0191962
0.0189934
0.0188026
0.0186229
0.0184536
0.0182952
0.0181484
0.0180121
0.0178836
0.0177616
0.0176449
0.0175319
0.0174214
0.0173122
0.0172034
0.0170943
0.0169847
0.0168747
0.0167646
0.0166553
0.0165487
0.0164452
0.0163492
0.0162569
0.0161751
0.0161106
0.0160416
0.0159686
0.0158844
0.0157938
0.0156984
0.0155971
0.0154909
0.0153811
0.0152691
0.0151564
0.0150448
0.0149359
0.0148322
0.0147356
0.0146492
0.014577
0.0145235
0.0144856
0.0144753
0.0144843
0.0144686
0.014448
0.0144173
0.0143753
0.0143234
0.0142618
0.0141906
0.0141096
0.0140188
0.0139179
0.0138066
0.0136848
0.0135521
0.0134084
0.0132534
0.013087
0.0129087
0.0127183
0.0125152
0.0122984
0.0120665
0.0118173
0.0115478
0.0112527
0.0109247
0.0105543
0.0101262
0.00963393
0.00911172
0.0086361
0.00821647
0.00784762
0.00752763
0.00725343
0.0070148
0.00680451
0.00661698
0.00644655
0.00628937
0.00614174
0.00600084
0.00586475
0.00573212
0.00560182
0.00547314
0.0053455
0.00521847
0.00509179
0.00496525
0.00483872
0.0047121
0.00458535
0.00445846
0.00433141
0.00420426
0.004077
0.0039497
0.00382242
0.00369519
0.00356806
0.00344108
0.00331428
0.00318773
0.00306145
0.00293547
0.00280985
0.00268462
0.0025598
0.0024354
0.00231145
0.00218796
0.00206495
0.00194244
0.00182042
0.00169891
0.00157794
0.0014575
0.0013376
0.00121823
0.00109942
0.000981117
0.00086342
0.00074622
0.000629683
0.000513607
0.000398356
0.000283383
0.000169744
5.60546e-05
0.0367099
0.0361208
0.0355538
0.0351957
0.0348424
0.0345242
0.034243
0.0339826
0.03374
0.0335121
0.0332942
0.0330867
0.0328869
0.032693
0.0325052
0.0323226
0.0321444
0.0319703
0.0318
0.0316331
0.0314693
0.0313084
0.0311503
0.0309946
0.0308412
0.0306901
0.0305409
0.0303938
0.0302484
0.0301048
0.0299628
0.0298223
0.0296833
0.0295457
0.0294095
0.0292745
0.0291407
0.029008
0.0288765
0.028746
0.0286165
0.0284881
0.0283605
0.0282339
0.0281081
0.0279831
0.027859
0.0277356
0.027613
0.0274911
0.0273699
0.0272494
0.0271295
0.0270103
0.0268917
0.0267736
0.0266562
0.0265393
0.0264229
0.0263071
0.0261917
0.0260769
0.0259625
0.0258486
0.0257352
0.0256222
0.0255096
0.0253974
0.0252857
0.0251743
0.0250633
0.0249526
0.0248423
0.0247323
0.0246226
0.0245132
0.024404
0.0242951
0.0241863
0.0240777
0.0239691
0.0238605
0.0237518
0.0236429
0.0235335
0.0234235
0.0233125
0.0232002
0.023086
0.0229692
0.0228489
0.0227239
0.0225925
0.0224525
0.0223008
0.0221336
0.0219451
0.0217298
0.0214767
0.0211917
0.0208564
0.0205171
0.020211
0.0199322
0.0196722
0.0194328
0.0192118
0.0190048
0.0188091
0.018624
0.0184493
0.0182856
0.018134
0.0179935
0.0178617
0.0177373
0.017619
0.017505
0.0173942
0.0172852
0.0171771
0.0170691
0.0169609
0.0168525
0.0167442
0.0166369
0.0165321
0.0164306
0.0163365
0.0162455
0.0161655
0.0161031
0.0160349
0.0159624
0.015878
0.0157875
0.0156921
0.0155908
0.0154845
0.0153746
0.0152626
0.0151499
0.0150382
0.0149292
0.0148254
0.0147288
0.0146422
0.0145699
0.0145165
0.0144785
0.0144689
0.0144788
0.0144625
0.0144416
0.0144103
0.0143675
0.0143147
0.014252
0.0141794
0.0140969
0.0140041
0.013901
0.0137873
0.0136627
0.0135271
0.0133802
0.0132219
0.013052
0.0128703
0.0126763
0.0124699
0.0122498
0.0120149
0.011763
0.0114913
0.0111943
0.0108652
0.0104942
0.0100662
0.00957467
0.00905362
0.00857819
0.00815953
0.00779333
0.00747614
0.00720509
0.00697064
0.00676484
0.00658192
0.00641564
0.00626204
0.00611763
0.00597963
0.00584611
0.00571572
0.00558739
0.00546046
0.0053343
0.00520858
0.00508303
0.00495745
0.00483176
0.00470586
0.00457975
0.00445341
0.00432685
0.00420012
0.00407324
0.00394628
0.00381929
0.00369233
0.00356545
0.00343868
0.00331209
0.00318571
0.00305959
0.00293376
0.00280828
0.00268318
0.00255847
0.00243418
0.00231032
0.00218693
0.002064
0.00194157
0.00181962
0.00169817
0.00157726
0.00145688
0.00133703
0.0012177
0.00109893
0.000980679
0.000863018
0.000745854
0.000629361
0.000513286
0.000398147
0.000283015
0.000169747
5.50438e-05
0.0367341
0.0361187
0.035551
0.0351941
0.0348391
0.0345218
0.0342411
0.033981
0.0337387
0.0335109
0.0332935
0.033086
0.0328861
0.0326925
0.0325048
0.0323221
0.032144
0.03197
0.0317997
0.0316328
0.0314691
0.0313082
0.0311501
0.0309944
0.030841
0.0306899
0.0305408
0.0303936
0.0302483
0.0301047
0.0299627
0.0298222
0.0296832
0.0295456
0.0294094
0.0292744
0.0291406
0.029008
0.0288764
0.0287459
0.0286165
0.028488
0.0283605
0.0282338
0.028108
0.0279831
0.027859
0.0277356
0.027613
0.0274911
0.0273699
0.0272494
0.0271295
0.0270103
0.0268916
0.0267736
0.0266561
0.0265392
0.0264229
0.026307
0.0261917
0.0260769
0.0259625
0.0258486
0.0257352
0.0256222
0.0255096
0.0253974
0.0252856
0.0251743
0.0250633
0.0249526
0.0248423
0.0247323
0.0246226
0.0245132
0.024404
0.0242951
0.0241864
0.0240778
0.0239692
0.0238606
0.023752
0.0236431
0.0235338
0.0234239
0.0233131
0.0232009
0.0230868
0.0229703
0.0228504
0.0227259
0.0225952
0.0224562
0.0223058
0.0221403
0.0219541
0.0217419
0.0214927
0.0212127
0.0208822
0.0205469
0.0202432
0.0199652
0.019704
0.0194614
0.0192357
0.0190226
0.0188197
0.0186268
0.0184441
0.0182724
0.0181135
0.0179665
0.0178293
0.0177007
0.0175792
0.0174632
0.0173511
0.0172417
0.017134
0.0170271
0.0169206
0.0168144
0.0167088
0.0166044
0.0165029
0.0164047
0.0163139
0.0162255
0.0161488
0.0160898
0.0160233
0.0159514
0.0158669
0.0157767
0.0156814
0.0155801
0.0154738
0.015364
0.0152519
0.0151393
0.0150275
0.0149186
0.0148147
0.0147181
0.0146313
0.0145588
0.0145055
0.0144672
0.0144587
0.0144694
0.0144524
0.0144307
0.0143985
0.0143546
0.0143004
0.0142362
0.014162
0.0140777
0.0139829
0.0138777
0.0137617
0.0136348
0.0134967
0.0133473
0.0131865
0.0130141
0.0128298
0.0126333
0.0124243
0.0122018
0.0119648
0.0117109
0.0114374
0.0111391
0.0108093
0.0104382
0.0100107
0.00952068
0.00900023
0.00852454
0.00810599
0.00774136
0.00742628
0.00715745
0.00692564
0.00672292
0.006543
0.00638076
0.00623052
0.00608928
0.00595422
0.00582344
0.00569556
0.00556943
0.00544453
0.00532013
0.00519593
0.00507174
0.00494736
0.00482272
0.00469774
0.00457244
0.00444681
0.00432088
0.00419472
0.00406833
0.0039418
0.00381521
0.00368861